
RESULTS XOFFSET           0.0000
RESULTS YOFFSET           0.0000
RESULTS ROTATION           0.0000  **  (DEGREES)
**  Distance units: m

GRID
** ****************************************************************************
** Definition of fundamental corner point grid
** ****************************************************************************
CORNER 10 14 5

** Block dimensions in X (I) direction.
DI IVAR
         360          360          360          360          360          360 
         360          360          360          360 

** Block dimensions in Y (J) direction.
DJ JVAR
         360          360          360          360          360          360 
         360          360          360          360          360          360 
         360          360 

** Block corner locations in Z (K).
ZCORN
** Corners for layer K=1
**    Top corners for row J=1
       2444.6201       2441.8701       2441.8701       2428.3401       2428.3401       2420.2500
       2420.2500       2414.4900       2414.4900       2408.5701       2408.5701       2403.1201
       2403.1201       2395.6399       2395.6399       2393.7600       2393.7600       2399.5601
       2399.5601       2408.6101       2451.4099       2436.4099       2436.4099       2422.8201
       2422.8201       2412.5801       2412.5801       2405.0601       2405.0601       2399.9500
       2399.9500       2396.7900       2396.7900       2392.0500       2392.0500       2387.4500
       2387.4500       2394.5801       2394.5801       2404.1201
**    Top corners for row J=2
       2451.4099       2436.4099       2436.4099       2422.8201       2422.8201       2412.5801
       2412.5801       2405.0601       2405.0601       2399.9500       2399.9500       2396.7900
       2396.7900       2392.0500       2392.0500       2387.4500       2387.4500       2394.5801
       2394.5801       2404.1201       2445.1699       2430.9600       2430.9600       2417.3401
       2417.3401       2406.1499       2406.1499       2398.6101       2398.6101       2391.8999
       2391.8999       2387.1599       2387.1599       2384.6001       2384.6001       2381.3701
       2381.3701       2389.4099       2389.4099       2399.9900
**    Top corners for row J=3
       2445.1699       2430.9600       2430.9600       2417.3401       2417.3401       2406.1499
       2406.1499       2398.6101       2398.6101       2391.8999       2391.8999       2387.1599
       2387.1599       2384.6001       2384.6001       2381.3701       2381.3701       2389.4099
       2389.4099       2399.9900       2437.5000       2424.3000       2424.3000       2411.1001
       2411.1001       2400.7400       2400.7400       2392.9399       2392.9399       2385.1299
       2385.1299       2379.0601       2379.0601       2375.7700       2375.7700       2374.2000
       2374.2000       2384.0801       2384.0801       2397.5300
**    Top corners for row J=4
       2437.5000       2424.3000       2424.3000       2411.1001       2411.1001       2400.7400
       2400.7400       2392.9399       2392.9399       2385.1299       2385.1299       2379.0601
       2379.0601       2375.7700       2375.7700       2374.2000       2374.2000       2384.0801
       2384.0801       2397.5300       2427.3701       2417.1299       2417.1299       2405.5200
       2405.5200       2395.2900       2395.2900       2385.3999       2385.3999       2377.5200
       2377.5200       2374.9399       2374.9399       2370.5801       2370.5801       2366.4800
       2368.4800       2377.7700       2377.7700       2392.0801
**    Top corners for row J=5
       2427.3701       2417.1299       2417.1299       2405.5200       2405.5200       2395.2900
       2395.2900       2385.3999       2385.3999       2377.5200       2377.5200       2374.9399
       2374.9399       2370.5801       2370.5801       2366.4800       2368.4800       2377.7700
       2377.7700       2392.0801       2422.2200       2410.7700       2410.7700       2399.4399
       2399.4399       2388.6499       2388.6499       2377.3999       2377.3999       2371.8799
       2371.8799       2369.6399       2369.6399       2364.2400       2364.2400       2363.2000
       2363.2000       2375.8999       2375.8999       2390.3201
**    Top corners for row J=6
       2422.2200       2410.7700       2410.7700       2399.4399       2399.4399       2388.6499
       2388.6499       2377.3999       2377.3999       2371.8799       2371.8799       2369.6399
       2369.6399       2364.2400       2364.2400       2363.2000       2363.2000       2375.8999
       2375.8999       2390.3201       2420.5100       2408.3201       2408.3201       2396.0701
       2396.0701       2382.6799       2382.6799       2371.2400       2371.2400       2365.0601
       2365.0601       2361.8899       2361.8899       2356.8000       2356.8000       2358.2400
       2358.2400       2372.5400       2372.5400       2384.5500
**    Top corners for row J=7
       2420.5100       2408.3201       2408.3201       2396.0701       2396.0701       2382.6799
       2382.6799       2371.2400       2371.2400       2365.0601       2365.0601       2361.8899
       2361.8899       2356.8000       2356.8000       2358.2400       2358.2400       2372.5400
       2372.5400       2384.5500       2417.7200       2403.5000       2403.5000       2390.5100
       2390.5100       2375.7200       2375.7200       2364.4600       2364.4600       2356.5701
       2356.5701       2351.9299       2351.9299       2346.8101       2346.8101       2352.9399
       2352.9399       2368.0601       2368.0601       2380.8301
**    Top corners for row J=8
       2417.7200       2403.5000       2403.5000       2390.5100       2390.5100       2375.7200
       2375.7200       2364.4600       2364.4600       2356.5701       2356.5701       2351.9299
       2351.9299       2346.8101       2346.8101       2352.9399       2352.9399       2368.0601
       2368.0601       2380.8301       2408.5500       2394.6101       2394.6101       2380.9700
       2380.9700       2370.1201       2370.1201       2358.0901       2358.0901       2349.3101
       2349.3101       2342.8000       2342.8000       2341.1699       2341.1699       2345.5300
       2345.5300       2363.3501       2363.3501       2376.9199
**    Top corners for row J=9
       2408.5500       2394.6101       2394.6101       2380.9700       2380.9700       2370.1201
       2370.1201       2358.0901       2358.0901       2349.3101       2349.3101       2342.8000
       2342.8000       2341.1699       2341.1699       2345.5300       2345.5300       2363.3501
       2363.3501       2376.9199       2403.5701       2390.9199       2390.9199       2378.2900
       2378.2900       2365.5200       2365.5200       2353.1101       2353.1101       2343.9700
       2343.9700       2339.9800       2339.9800       2344.7300       2344.7300       2349.3501
       2349.3501       2362.6699       2362.6699       2375.2300
**    Top corners for row J=10
       2403.5701       2390.9199       2390.9199       2378.2900       2378.2900       2365.5200
       2365.5200       2353.1101       2353.1101       2343.9700       2343.9700       2339.9800
       2339.9800       2344.7300       2344.7300       2349.3501       2349.3501       2362.6699
       2362.6699       2375.2300       2419.3301       2390.3301       2390.3301       2375.7200
       2375.7200       2361.9800       2361.9800       2351.0400       2351.0400       2343.7100
       2343.7100       2345.3000       2345.3000       2352.3799       2352.3799       2357.1399
       2357.1399       2366.9600       2366.9600       2380.0801
**    Top corners for row J=11
       2419.3301       2390.3301       2390.3301       2375.7200       2375.7200       2361.9800
       2361.9800       2351.0400       2351.0400       2343.7100       2343.7100       2345.3000
       2345.3000       2352.3799       2352.3799       2357.1399       2357.1399       2366.9600
       2366.9600       2380.0801       2417.1699       2387.1201       2387.1201       2375.7000
       2375.7000       2363.8799       2363.8799       2356.1599       2356.1599       2354.6001
       2354.6001       2357.6799       2357.6799       2357.8401       2357.8401       2364.5901
       2364.5901       2379.3301       2379.3301       2389.6299
**    Top corners for row J=12
       2417.1699       2387.1201       2387.1201       2375.7000       2375.7000       2363.8799
       2363.8799       2356.1599       2356.1599       2354.6001       2354.6001       2357.6799
       2357.6799       2357.8401       2357.8401       2364.5901       2364.5901       2379.3301
       2379.3301       2389.6299       2396.4900       2387.8601       2387.8601       2379.8601
       2379.8601       2374.4900       2374.4900       2371.3101       2371.3101       2369.6899
       2369.6899       2368.0100       2368.0100       2363.5000       2363.5000       2371.5200
       2371.5200       2416.5901       2416.5901       2474.2400
**    Top corners for row J=13
       2396.4900       2387.8601       2387.8601       2379.8601       2379.8601       2374.4900
       2374.4900       2371.3101       2371.3101       2369.6899       2369.6899       2368.0100
       2368.0100       2363.5000       2363.5000       2371.5200       2371.5200       2416.5901
       2416.5901       2474.2400       2401.5801       2393.6599       2393.6599       2389.0500
       2389.0500       2386.8899       2386.8899       2386.2900       2386.2900       2388.2200
       2388.2200       2392.5400       2392.5400       2397.2100       2397.2100       2448.0701
       2448.0701       2474.3999       2474.3999       2525.6001
**    Top corners for row J=14
       2401.5801       2393.6599       2393.6599       2389.0500       2389.0500       2386.8899
       2386.8899       2386.2900       2386.2900       2388.2200       2388.2200       2392.5400
       2392.5400       2397.2100       2397.2100       2448.0701       2448.0701       2474.3999
       2474.3999       2525.6001       2447.3301       2444.7500       2444.7500       2431.3301
       2431.3301       2423.3401       2423.3401       2417.6799       2417.6799       2411.8101
       2411.8101       2406.3701       2406.3701       2398.8201       2398.8201       2396.8201
       2396.8201       2402.3799       2402.3799       2411.1799
**    Bottom corners for row J=1
       2447.3301       2444.7500       2444.7500       2431.3301       2431.3301       2423.3401
       2423.3401       2417.6799       2417.6799       2411.8101       2411.8101       2406.3701
       2406.3701       2398.8201       2398.8201       2396.8201       2396.8201       2402.3799
       2402.3799       2411.1799       2453.8201       2438.9500       2438.9500       2425.3899
       2425.3899       2415.1599       2415.1599       2407.6001       2407.6001       2402.4800
       2402.4800       2399.2700       2399.2700       2394.4299       2394.4299       2389.7100
       2389.7100       2396.4600       2396.4600       2405.6101
**    Bottom corners for row J=2
       2453.8201       2438.9500       2438.9500       2425.3899       2425.3899       2415.1599
       2415.1599       2407.6001       2407.6001       2402.4800       2402.4800       2399.2700
       2399.2700       2394.4299       2394.4299       2389.7100       2389.7100       2396.4600
       2396.4600       2405.6101       2448.2700       2433.3999       2433.3999       2419.8701
       2419.8701       2408.6399       2408.6399       2400.8301       2400.8301       2393.9199
       2393.9199       2388.9199       2388.9199       2386.1399       2386.1399       2382.8101
       2382.8101       2390.8501       2390.8501       2401.4500
**    Bottom corners for row J=3
       2448.2700       2433.3999       2433.3999       2419.8701       2419.8701       2408.6399
       2408.6399       2400.8301       2400.8301       2393.9199       2393.9199       2388.9199
       2388.9199       2386.1399       2386.1399       2382.8101       2382.8101       2390.8501
       2390.8501       2401.4500       2440.8201       2427.7700       2427.7700       2414.3101
       2414.3101       2404.0500       2404.0500       2396.2200       2396.2200       2387.7100
       2387.7100       2381.1499       2381.1499       2377.3401       2377.3401       2375.8501
       2375.8501       2386.3301       2386.3301       2399.9199
**    Bottom corners for row J=4
       2440.8201       2427.7700       2427.7700       2414.3101       2414.3101       2404.0500
       2404.0500       2396.2200       2396.2200       2387.7100       2387.7100       2381.1499
       2381.1499       2377.3401       2377.3401       2375.8501       2375.8501       2386.3301
       2386.3301       2399.9199       2430.5500       2420.4199       2420.4199       2409.1101
       2409.1101       2399.3601       2399.3601       2389.7800       2389.7800       2381.7900
       2381.7900       2378.8701       2378.8701       2374.6399       2374.6399       2372.5601
       2372.5601       2381.4099       2381.4099       2395.3000
**    Bottom corners for row J=5
       2430.5500       2420.4199       2420.4199       2409.1101       2409.1101       2399.3601
       2399.3601       2389.7800       2389.7800       2381.7900       2381.7900       2378.8701
       2378.8701       2374.6399       2374.6399       2372.5601       2372.5601       2381.4099
       2381.4099       2395.3000       2425.3201       2413.8899       2413.8899       2402.8000
       2402.8000       2392.4399       2392.4399       2381.8000       2381.8000       2376.8999
       2376.8999       2374.5000       2374.5000       2368.7800       2368.7800       2367.6799
       2367.6799       2379.3000       2379.3000       2392.9099
**    Bottom corners for row J=6
       2425.3201       2413.8899       2413.8899       2402.8000       2402.8000       2392.4399
       2392.4399       2381.8000       2381.8000       2376.8999       2376.8999       2374.5000
       2374.5000       2368.7800       2368.7800       2367.6799       2367.6799       2379.3000
       2379.3000       2392.9099       2423.5601       2411.6299       2411.6299       2399.5701
       2399.5701       2386.3701       2386.3701       2375.4700       2375.4700       2370.2200
       2370.2200       2366.7600       2366.7600       2361.1299       2361.1299       2362.7200
       2362.7200       2375.9099       2375.9099       2387.5200
**    Bottom corners for row J=7
       2423.5601       2411.6299       2411.6299       2399.5701       2399.5701       2386.3701
       2386.3701       2375.4700       2375.4700       2370.2200       2370.2200       2366.7600
       2366.7600       2361.1299       2361.1299       2362.7200       2362.7200       2375.9099
       2375.9099       2387.5200       2421.5200       2406.9700       2406.9700       2394.2000
       2394.2000       2379.8301       2379.8301       2369.1001       2369.1001       2362.0300
       2362.0300       2357.1399       2357.1399       2352.0701       2352.0701       2355.9199
       2355.9199       2369.8501       2369.8501       2383.0100
**    Bottom corners for row J=8
       2421.5200       2406.9700       2406.9700       2394.2000       2394.2000       2379.8301
       2379.8301       2369.1001       2369.1001       2362.0300       2362.0300       2357.1399
       2357.1399       2352.0701       2352.0701       2355.9199       2355.9199       2369.8501
       2369.8501       2383.0100       2413.7200       2399.0500       2399.0500       2385.0500
       2385.0500       2374.1101       2374.1101       2361.8799       2361.8799       2354.2800
       2354.2800       2347.9099       2347.9099       2344.9399       2344.9399       2346.9500
       2346.9500       2364.8799       2364.8799       2379.0801
**    Bottom corners for row J=9
       2413.7200       2399.0500       2399.0500       2385.0500       2385.0500       2374.1101
       2374.1101       2361.8799       2361.8799       2354.2800       2354.2800       2347.9099
       2347.9099       2344.9399       2344.9399       2346.9500       2346.9500       2364.8799
       2364.8799       2379.0801       2408.3899       2395.3201       2395.3201       2382.3601
       2382.3601       2369.5701       2369.5701       2356.6201       2356.6201       2348.2200
       2348.2200       2343.9900       2343.9900       2347.3101       2347.3101       2351.1001
       2351.1001       2364.5701       2364.5701       2377.6499
**    Bottom corners for row J=10
       2408.3899       2395.3201       2395.3201       2382.3601       2382.3601       2369.5701
       2369.5701       2356.6201       2356.6201       2348.2200       2348.2200       2343.9900
       2343.9900       2347.3101       2347.3101       2351.1001       2351.1001       2364.5701
       2364.5701       2377.6499       2423.1101       2394.2900       2394.2900       2380.0901
       2380.0901       2366.4399       2366.4399       2354.7200       2354.7200       2348.1799
       2348.1799       2349.0701       2349.0701       2354.8501       2354.8501       2359.8899
       2359.8899       2369.9600       2369.9600       2383.1899
**    Bottom corners for row J=11
       2423.1101       2394.2900       2394.2900       2380.0901       2380.0901       2366.4399
       2366.4399       2354.7200       2354.7200       2348.1799       2348.1799       2349.0701
       2349.0701       2354.8501       2354.8501       2359.8899       2359.8899       2369.9600
       2369.9600       2383.1899       2421.8301       2391.8101       2391.8101       2380.7500
       2380.7500       2368.1399       2368.1399       2358.8000       2358.8000       2358.6299
       2358.6299       2361.2900       2361.2900       2360.3101       2360.3101       2368.5901
       2368.5901       2382.1299       2382.1299       2391.9399
**    Bottom corners for row J=12
       2421.8301       2391.8101       2391.8101       2380.7500       2380.7500       2368.1399
       2368.1399       2358.8000       2358.8000       2358.6299       2358.6299       2361.2900
       2361.2900       2360.3101       2360.3101       2368.5901       2368.5901       2382.1299
       2382.1299       2391.9399       2401.9399       2392.6699       2392.6699       2384.6299
       2384.6299       2379.1001       2379.1001       2375.8000       2375.8000       2374.2400
       2374.2400       2372.7000       2372.7000       2367.0801       2367.0801       2375.9399
       2375.9399       2420.4500       2420.4500       2478.2200
**    Bottom corners for row J=13
       2401.9399       2392.6699       2392.6699       2384.6299       2384.6299       2379.1001
       2379.1001       2375.8000       2375.8000       2374.2400       2374.2400       2372.7000
       2372.7000       2367.0801       2367.0801       2375.9399       2375.9399       2420.4500
       2420.4500       2478.2200       2407.0801       2398.2100       2398.2100       2393.2100
       2393.2100       2390.8601       2390.8601       2390.3501       2390.3501       2392.5100
       2392.5100       2397.1101       2397.1101       2401.9600       2401.9600       2452.9500
       2452.9500       2479.0400       2479.0400       2530.9600
**    Bottom corners for row J=14
       2407.0801       2398.2100       2398.2100       2393.2100       2393.2100       2390.8601
       2390.8601       2390.3501       2390.3501       2392.5100       2392.5100       2397.1101
       2397.1101       2401.9600       2401.9600       2452.9500       2452.9500       2479.0400
       2479.0400       2530.9600       2447.3301       2444.7500       2444.7500       2431.3301
       2431.3301       2423.3401       2423.3401       2417.6899       2417.6899       2411.8101
       2411.8101       2406.3701       2406.3701       2398.8201       2398.8201       2396.8201
       2396.8201       2402.3799       2402.3799       2411.1799
** Corners for layer K=2
**    Top corners for row J=1
       2447.3301       2444.7500       2444.7500       2431.3301       2431.3301       2423.3401
       2423.3401       2417.6899       2417.6899       2411.8101       2411.8101       2406.3701
       2406.3701       2398.8201       2398.8201       2396.8201       2396.8201       2402.3799
       2402.3799       2411.1799       2453.8201       2438.9500       2438.9500       2425.3899
       2425.3899       2415.1599       2415.1599       2407.6001       2407.6001       2402.4800
       2402.4800       2399.2700       2399.2700       2394.4299       2394.4299       2389.7100
       2389.7100       2396.4600       2396.4600       2405.6101
**    Top corners for row J=2
       2453.8201       2438.9500       2438.9500       2425.3899       2425.3899       2415.1599
       2415.1599       2407.6001       2407.6001       2402.4800       2402.4800       2399.2700
       2399.2700       2394.4299       2394.4299       2389.7100       2389.7100       2396.4600
       2396.4600       2405.6101       2448.2700       2433.3999       2433.3999       2419.8701
       2419.8701       2408.6399       2408.6399       2400.8301       2400.8301       2393.9199
       2393.9199       2388.9199       2388.9199       2386.1399       2386.1399       2382.8101
       2382.8101       2390.8501       2390.8501       2401.4500
**    Top corners for row J=3
       2448.2700       2433.3999       2433.3999       2419.8701       2419.8701       2408.6399
       2408.6399       2400.8301       2400.8301       2393.9199       2393.9199       2388.9199
       2388.9199       2386.1399       2386.1399       2382.8101       2382.8101       2390.8501
       2390.8501       2401.4500       2440.8201       2427.7700       2427.7700       2414.3101
       2414.3101       2404.0500       2404.0500       2396.2200       2396.2200       2387.7100
       2387.7100       2381.1499       2381.1499       2377.3401       2377.3401       2375.8501
       2375.8501       2386.3301       2386.3301       2399.9199
**    Top corners for row J=4
       2440.8201       2427.7700       2427.7700       2414.3101       2414.3101       2404.0500
       2404.0500       2396.2200       2396.2200       2387.7100       2387.7100       2381.1499
       2381.1499       2377.3401       2377.3401       2375.8501       2375.8501       2386.3301
       2386.3301       2399.9199       2430.5500       2420.4199       2420.4199       2409.1101
       2409.1101       2399.3601       2399.3601       2389.7800       2389.7800       2381.7900
       2381.7900       2378.8701       2378.8701       2374.6399       2374.6399       2372.5601
       2372.5601       2381.4099       2381.4099       2395.3000
**    Top corners for row J=5
       2430.5500       2420.4199       2420.4199       2409.1101       2409.1101       2399.3601
       2399.3601       2389.7800       2389.7800       2381.7900       2381.7900       2378.8701
       2378.8701       2374.6399       2374.6399       2372.5601       2372.5601       2381.4099
       2381.4099       2395.3000       2425.3201       2413.8899       2413.8899       2402.8000
       2402.8000       2392.4399       2392.4399       2381.8000       2381.8000       2376.8999
       2376.8999       2374.5000       2374.5000       2368.7800       2368.7800       2367.6799
       2367.6799       2379.3000       2379.3000       2392.9099
**    Top corners for row J=6
       2425.3201       2413.8899       2413.8899       2402.8000       2402.8000       2392.4399
       2392.4399       2381.8000       2381.8000       2376.8999       2376.8999       2374.5000
       2374.5000       2368.7800       2368.7800       2367.6799       2367.6799       2379.3000
       2379.3000       2392.9099       2423.5601       2411.6299       2411.6299       2399.5701
       2399.5701       2386.3701       2386.3701       2375.4700       2375.4700       2370.2200
       2370.2200       2366.7600       2366.7600       2361.1299       2361.1299       2362.7200
       2362.7200       2375.9099       2375.9099       2387.5200
**    Top corners for row J=7
       2423.5601       2411.6299       2411.6299       2399.5701       2399.5701       2386.3701
       2386.3701       2375.4700       2375.4700       2370.2200       2370.2200       2366.7600
       2366.7600       2361.1299       2361.1299       2362.7200       2362.7200       2375.9099
       2375.9099       2387.5200       2421.5200       2406.9700       2406.9700       2394.2000
       2394.2000       2379.8301       2379.8301       2369.1001       2369.1001       2362.0300
       2362.0300       2357.1399       2357.1399       2352.0701       2352.0701       2355.9199
       2355.9199       2369.8501       2369.8501       2383.0100
**    Top corners for row J=8
       2421.5200       2406.9700       2406.9700       2394.2000       2394.2000       2379.8301
       2379.8301       2369.1001       2369.1001       2362.0300       2362.0300       2357.1399
       2357.1399       2352.0701       2352.0701       2355.9199       2355.9199       2369.8501
       2369.8501       2383.0100       2413.7200       2399.0500       2399.0500       2385.0500
       2385.0500       2374.1101       2374.1101       2361.8799       2361.8799       2354.2800
       2354.2800       2347.9099       2347.9099       2344.9399       2344.9399       2346.9500
       2346.9500       2364.8799       2364.8799       2379.0801
**    Top corners for row J=9
       2413.7200       2399.0500       2399.0500       2385.0500       2385.0500       2374.1101
       2374.1101       2361.8799       2361.8799       2354.2800       2354.2800       2347.9099
       2347.9099       2344.9399       2344.9399       2346.9500       2346.9500       2364.8799
       2364.8799       2379.0801       2408.3899       2395.3201       2395.3201       2382.3601
       2382.3601       2369.5701       2369.5701       2356.6201       2356.6201       2348.2200
       2348.2200       2343.9900       2343.9900       2347.3101       2347.3101       2351.1001
       2351.1001       2364.5701       2364.5701       2377.6499
**    Top corners for row J=10
       2408.3899       2395.3201       2395.3201       2382.3601       2382.3601       2369.5701
       2369.5701       2356.6201       2356.6201       2348.2200       2348.2200       2343.9900
       2343.9900       2347.3101       2347.3101       2351.1001       2351.1001       2364.5701
       2364.5701       2377.6499       2423.1101       2394.2900       2394.2900       2380.0901
       2380.0901       2366.4399       2366.4399       2354.7200       2354.7200       2348.1799
       2348.1799       2349.0701       2349.0701       2354.8501       2354.8501       2359.8899
       2359.8899       2369.9600       2369.9600       2383.1899
**    Top corners for row J=11
       2423.1101       2394.2900       2394.2900       2380.0901       2380.0901       2366.4399
       2366.4399       2354.7200       2354.7200       2348.1799       2348.1799       2349.0701
       2349.0701       2354.8501       2354.8501       2359.8899       2359.8899       2369.9600
       2369.9600       2383.1899       2421.8301       2391.8101       2391.8101       2380.7500
       2380.7500       2368.1399       2368.1399       2358.8000       2358.8000       2358.6299
       2358.6299       2361.2900       2361.2900       2360.3101       2360.3101       2368.5901
       2368.5901       2382.1299       2382.1299       2391.9399
**    Top corners for row J=12
       2421.8301       2391.8101       2391.8101       2380.7500       2380.7500       2368.1399
       2368.1399       2358.8000       2358.8000       2358.6299       2358.6299       2361.2900
       2361.2900       2360.3101       2360.3101       2368.5901       2368.5901       2382.1299
       2382.1299       2391.9399       2401.9399       2392.6699       2392.6699       2384.6299
       2384.6299       2379.1001       2379.1001       2375.8000       2375.8000       2374.2400
       2374.2400       2372.7000       2372.7000       2367.0801       2367.0801       2375.9399
       2375.9399       2420.4500       2420.4500       2478.2200
**    Top corners for row J=13
       2401.9399       2392.6699       2392.6699       2384.6299       2384.6299       2379.1001
       2379.1001       2375.8000       2375.8000       2374.2400       2374.2400       2372.7000
       2372.7000       2367.0801       2367.0801       2375.9399       2375.9399       2420.4500
       2420.4500       2478.2200       2407.0801       2398.2100       2398.2100       2393.2100
       2393.2100       2390.8601       2390.8601       2390.3501       2390.3501       2392.5100
       2392.5100       2397.1101       2397.1101       2401.9600       2401.9600       2452.9500
       2452.9500       2479.0400       2479.0400       2530.9600
**    Top corners for row J=14
       2407.0801       2398.2100       2398.2100       2393.2100       2393.2100       2390.8601
       2390.8601       2390.3501       2390.3501       2392.5100       2392.5100       2397.1101
       2397.1101       2401.9600       2401.9600       2452.9500       2452.9500       2479.0400
       2479.0400       2530.9600       2452.0601       2449.6599       2449.6599       2436.4099
       2436.4099       2428.5701       2428.5701       2423.0500       2423.0500       2417.2500
       2417.2500       2411.8501       2411.8501       2404.3401       2404.3401       2402.0701
       2402.0701       2407.5100       2407.5100       2416.2800
**    Bottom corners for row J=1
       2452.0601       2449.6599       2449.6599       2436.4099       2436.4099       2428.5701
       2428.5701       2423.0500       2423.0500       2417.2500       2417.2500       2411.8501