
RESULTS XOFFSET           0.0000
RESULTS YOFFSET           0.0000
RESULTS ROTATION           0.0000  **  (DEGREES)
**  Distance units: m

GRID
** ****************************************************************************
** Definition of fundamental corner point grid
** ****************************************************************************
CORNER 10 14 5

** Block dimensions in X (I) direction.
DI IVAR
         360          360          360          360          360          360 
         360          360          360          360 

** Block dimensions in Y (J) direction.
DJ JVAR
         360          360          360          360          360          360 
         360          360          360          360          360          360 
         360          360 

** Block corner locations in Z (K).
ZCORN
** Corners for layer K=1
**    Top corners for row J=1
       2444.6201       2441.8701       2441.8701       2428.3401       2428.3401       2420.2500
       2420.2500       2414.4900       2414.4900       2408.5701       2408.5701       2403.1201
       2403.1201       2395.6399       2395.6399       2393.7600       2393.7600       2399.5601
       2399.5601       2408.6101       2447.6299       2439.1899       2439.1899       2425.6399
       2425.6399       2416.1699       2416.1699       2409.4700       2409.4700       2404.2500
       2404.2500       2400.2400       2400.2400       2394.0000       2394.0000       2390.4700
       2390.4700       2397.4600       2397.4600       2407.3401
**    Top corners for row J=2
       2451.4099       2436.4099       2436.4099       2422.8201       2422.8201       2412.5801
       2412.5801       2405.0601       2405.0601       2399.9500       2399.9500       2396.7900
       2396.7900       2392.0500       2392.0500       2387.4500       2387.4500       2394.5801
       2394.5801       2404.1201       2451.0400       2433.7400       2433.7400       2420.1499
       2420.1499       2409.2700       2409.2700       2401.6499       2401.6499       2395.7100
       2395.7100       2392.1201       2392.1201       2388.9800       2388.9800       2384.6001
       2384.6001       2391.3999       2391.3999       2400.0100
**    Top corners for row J=3
       2445.1699       2430.9600       2430.9600       2417.3401       2417.3401       2406.1499
       2406.1499       2398.6101       2398.6101       2391.8999       2391.8999       2387.1599
       2387.1599       2384.6001       2384.6001       2381.3701       2381.3701       2389.4099
       2389.4099       2399.9900       2440.3101       2427.6101       2427.6101       2414.2100
       2414.2100       2403.3701       2403.3701       2395.7600       2395.7600       2388.5601
       2388.5601       2382.6799       2382.6799       2380.0400       2380.0400       2377.8501
       2377.8501       2387.5000       2387.5000       2399.8000
**    Top corners for row J=4
       2437.5000       2424.3000       2424.3000       2411.1001       2411.1001       2400.7400
       2400.7400       2392.9399       2392.9399       2385.1299       2385.1299       2379.0601
       2379.0601       2375.7700       2375.7700       2374.2000       2374.2000       2384.0801
       2384.0801       2397.5300       2433.5200       2420.7700       2420.7700       2408.3701
       2408.3701       2398.2600       2398.2600       2389.5701       2389.5701       2381.2600
       2381.2600       2376.6799       2376.6799       2372.7200       2372.7200       2370.5200
       2370.5200       2379.8000       2379.8000       2394.4800
**    Top corners for row J=5
       2427.3701       2417.1299       2417.1299       2405.5200       2405.5200       2395.2900
       2395.2900       2385.3999       2385.3999       2377.5200       2377.5200       2374.9399
       2374.9399       2370.5801       2370.5801       2366.4800       2368.4800       2377.7700
       2377.7700       2392.0801       2424.0701       2413.5000       2413.5000       2402.1699
       2402.1699       2391.8701       2391.8701       2381.0500       2381.0500       2374.6299
       2374.6299       2372.6899       2372.6899       2367.7000       2367.7000       2365.7700
       2365.7700       2376.7300       2376.7300       2391.3000
**    Top corners for row J=6
       2422.2200       2410.7700       2410.7700       2399.4399       2399.4399       2388.6499
       2388.6499       2377.3999       2377.3999       2371.8799       2371.8799       2369.6399
       2369.6399       2364.2400       2364.2400       2363.2000       2363.2000       2375.8999
       2375.8999       2390.3201       2420.0901       2409.4600       2409.4600       2397.6699
       2397.6699       2385.7400       2385.7400       2374.3201       2374.3201       2368.6001
       2368.6001       2366.1101       2366.1101       2360.8999       2360.8999       2362.8799
       2362.8799       2376.7900       2376.7900       2389.5100
**    Top corners for row J=7
       2420.5100       2408.3201       2408.3201       2396.0701       2396.0701       2382.6799
       2382.6799       2371.2400       2371.2400       2365.0601       2365.0601       2361.8899
       2361.8899       2356.8000       2356.8000       2358.2400       2358.2400       2372.5400
       2372.5400       2384.5500       2420.2100       2406.6899       2406.6899       2393.8301
       2393.8301       2379.2000       2379.2000       2367.9900       2367.9900       2360.9399
       2360.9399       2356.9199       2356.9199       2351.6101       2351.6101       2355.8201
       2355.8201       2369.5500       2369.5500       2381.8101
**    Top corners for row J=8
       2417.7200       2403.5000       2403.5000       2390.5100       2390.5100       2375.7200
       2375.7200       2364.4600       2364.4600       2356.5701       2356.5701       2351.9299
       2351.9299       2346.8101       2346.8101       2352.9399       2352.9399       2368.0601
       2368.0601       2380.8301       2413.6499       2399.0300       2399.0300       2385.7500
       2385.7500       2372.5901       2372.5901       2361.1001       2361.1001       2352.7200
       2352.7200       2346.9399       2346.9399       2343.1799       2343.1799       2349.1001
       2349.1001       2366.3101       2366.3101       2379.1399
**    Top corners for row J=9
       2408.5500       2394.6101       2394.6101       2380.9700       2380.9700       2370.1201
       2370.1201       2358.0901       2358.0901       2349.3101       2349.3101       2342.8000
       2342.8000       2341.1699       2341.1699       2345.5300       2345.5300       2363.3501
       2363.3501       2376.9199       2404.8301       2392.1201       2392.1201       2379.0100
       2379.0100       2367.8601       2367.8601       2355.3899       2355.3899       2346.3501
       2346.3501       2340.6799       2340.6799       2341.7100       2341.7100       2345.9199
       2345.9199       2362.5100       2362.5100       2377.2800
**    Top corners for row J=10
       2403.5701       2390.9199       2390.9199       2378.2900       2378.2900       2365.5200
       2365.5200       2353.1101       2353.1101       2343.9700       2343.9700       2339.9800
       2339.9800       2344.7300       2344.7300       2349.3501       2349.3501       2362.6699
       2362.6699       2375.2300       2408.7500       2389.7300       2389.7300       2376.9700
       2376.9700       2363.4199       2363.4199       2351.5200       2351.5200       2342.5901
       2342.5901       2341.2300       2341.2300       2348.3701       2348.3701       2353.4500
       2353.4500       2363.5000       2363.5000       2374.9399
**    Top corners for row J=11
       2419.3301       2390.3301       2390.3301       2375.7200       2375.7200       2361.9800
       2361.9800       2351.0400       2351.0400       2343.7100       2343.7100       2345.3000
       2345.3000       2352.3799       2352.3799       2357.1399       2357.1399       2366.9600
       2366.9600       2380.0801       2426.7100       2389.3899       2389.3899       2375.0601
       2375.0601       2361.8701       2361.8701       2352.3501       2352.3501       2347.9600
       2347.9600       2351.4800       2351.4800       2355.8501       2355.8501       2361.9299
       2361.9299       2373.0200       2373.0200       2384.5000
**    Top corners for row J=12
       2417.1699       2387.1201       2387.1201       2375.7000       2375.7000       2363.8799
       2363.8799       2356.1599       2356.1599       2354.6001       2354.6001       2357.6799
       2357.6799       2357.8401       2357.8401       2364.5901       2364.5901       2379.3301
       2379.3301       2389.6299       2400.3401       2387.0801       2387.0801       2377.1699
       2377.1699       2368.6899       2368.6899       2363.0100       2363.0100       2362.2400
       2362.2400       2362.5200       2362.5200       2358.9900       2358.9900       2365.3501
       2365.3501       2384.3799       2384.3799       2394.9299
**    Top corners for row J=13
       2396.4900       2387.8601       2387.8601       2379.8601       2379.8601       2374.4900
       2374.4900       2371.3101       2371.3101       2369.6899       2369.6899       2368.0100
       2368.0100       2363.5000       2363.5000       2371.5200       2371.5200       2416.5901
       2416.5901       2474.2400       2398.2900       2390.1201       2390.1201       2383.8799
       2383.8799       2380.3401       2380.3401       2378.8701       2378.8701       2378.0400
       2378.0400       2377.8799       2377.8799       2377.7600       2377.7600       2386.4900
       2386.4900       2447.9600       2447.9600       2552.0400
**    Top corners for row J=14
       2401.5801       2393.6599       2393.6599       2389.0500       2389.0500       2386.8899
       2386.8899       2386.2900       2386.2900       2388.2200       2388.2200       2392.5400
       2392.5400       2397.2100       2397.2100       2448.0701       2448.0701       2474.3999
       2474.3999       2525.6001       2406.2300       2398.4900       2398.4900       2394.9600
       2394.9600       2393.8101       2393.8101       2395.0601       2395.0601       2400.7700
       2400.7700       2409.0701       2409.0701       2430.7800       2430.7800       2500.0000
       2500.0000       2500.0000       2500.0000       2500.0000
**    Bottom corners for row J=1
       2447.3301       2444.7500       2444.7500       2431.3301       2431.3301       2423.3401
       2423.3401       2417.6799       2417.6799       2411.8101       2411.8101       2406.3701
       2406.3701       2398.8201       2398.8201       2396.8201       2396.8201       2402.3799
       2402.3799       2411.1799       2450.1699       2441.8899       2441.8899       2428.3899
       2428.3899       2418.9800       2418.9800       2412.3401       2412.3401       2407.1499
       2407.1499       2403.1001       2403.1001       2396.7900       2396.7900       2393.1299
       2393.1299       2399.7400       2399.7400       2409.2300
**    Bottom corners for row J=2
       2453.8201       2438.9500       2438.9500       2425.3899       2425.3899       2415.1599
       2415.1599       2407.6001       2407.6001       2402.4800       2402.4800       2399.2700
       2399.2700       2394.4299       2394.4299       2389.7100       2389.7100       2396.4600
       2396.4600       2405.6101       2453.4399       2436.1699       2436.1699       2422.6599
       2422.6599       2411.7200       2411.7200       2403.9099       2403.9099       2397.8999
       2397.8999       2394.2000       2394.2000       2390.9299       2390.9299       2386.4199
       2386.4199       2393.0100       2393.0100       2401.4500
**    Bottom corners for row J=3
       2448.2700       2433.3999       2433.3999       2419.8701       2419.8701       2408.6399
       2408.6399       2400.8301       2400.8301       2393.9199       2393.9199       2388.9199
       2388.9199       2386.1399       2386.1399       2382.8101       2382.8101       2390.8501
       2390.8501       2401.4500       2443.8601       2430.5901       2430.5901       2416.8401
       2416.8401       2406.0100       2406.0100       2398.2200       2398.2200       2390.7400
       2390.7400       2384.4399       2384.4399       2381.3701       2381.3701       2379.1299
       2379.1299       2388.9600       2388.9600       2401.4099
**    Bottom corners for row J=4
       2440.8201       2427.7700       2427.7700       2414.3101       2414.3101       2404.0500
       2404.0500       2396.2200       2396.2200       2387.7100       2387.7100       2381.1499
       2381.1499       2377.3401       2377.3401       2375.8501       2375.8501       2386.3301
       2386.3301       2399.9199       2436.8000       2424.1699       2424.1699       2412.0801
       2412.0801       2402.2500       2402.2500       2393.6399       2393.6399       2384.7100
       2384.7100       2379.6599       2379.6599       2375.4099       2375.4099       2373.3899
       2373.3899       2383.1499       2383.1499       2397.7800
**    Bottom corners for row J=5
       2430.5500       2420.4199       2420.4199       2409.1101       2409.1101       2399.3601
       2399.3601       2389.7800       2389.7800       2381.7900       2381.7900       2378.8701
       2378.8701       2374.6399       2374.6399       2372.5601       2372.5601       2381.4099
       2381.4099       2395.3000       2427.1899       2416.6799       2416.6799       2405.6101
       2405.6101       2395.8201       2395.8201       2385.5901       2385.5901       2379.3301
       2379.3301       2377.2300       2377.2300       2372.4099       2372.4099       2370.2800
       2370.2800       2380.2200       2380.2200       2394.1399
**    Bottom corners for row J=6
       2425.3201       2413.8899       2413.8899       2402.8000       2402.8000       2392.4399
       2392.4399       2381.8000       2381.8000       2376.8999       2376.8999       2374.5000
       2374.5000       2368.7800       2368.7800       2367.6799       2367.6799       2379.3000
       2379.3000       2392.9099       2423.2400       2412.6101       2412.6101       2401.0601
       2401.0601       2389.4099       2389.4099       2378.5200       2378.5200       2373.7100
       2373.7100       2370.9299       2370.9299       2365.0100       2365.0100       2367.2100
       2367.2100       2380.2500       2380.2500       2392.1899
**    Bottom corners for row J=7
       2423.5601       2411.6299       2411.6299       2399.5701       2399.5701       2386.3701
       2386.3701       2375.4700       2375.4700       2370.2200       2370.2200       2366.7600
       2366.7600       2361.1299       2361.1299       2362.7200       2362.7200       2375.9099
       2375.9099       2387.5200       2423.3501       2410.0701       2410.0701       2397.4399
       2397.4399       2383.1001       2383.1001       2372.5300       2372.5300       2366.2700
       2366.2700       2361.9399       2361.9399       2356.6699       2356.6699       2360.0100
       2360.0100       2372.1499       2372.1499       2384.2800
**    Bottom corners for row J=8
       2421.5200       2406.9700       2406.9700       2394.2000       2394.2000       2379.8301
       2379.8301       2369.1001       2369.1001       2362.0300       2362.0300       2357.1399
       2357.1399       2352.0701       2352.0701       2355.9199       2355.9199       2369.8501
       2369.8501       2383.0100       2418.1599       2402.9099       2402.9099       2389.5400
       2389.5400       2376.7000       2376.7000       2365.3899       2365.3899       2358.0200
       2358.0200       2352.3000       2352.3000       2347.9199       2347.9199       2350.9500
       2350.9500       2367.8401       2367.8401       2381.3701
**    Bottom corners for row J=9
       2413.7200       2399.0500       2399.0500       2385.0500       2385.0500       2374.1101
       2374.1101       2361.8799       2361.8799       2354.2800       2354.2800       2347.9099
       2347.9099       2344.9399       2344.9399       2346.9500       2346.9500       2364.8799
       2364.8799       2379.0801       2410.2500       2396.8000       2396.8000       2383.2100
       2383.2100       2371.8101       2371.8101       2358.8301       2358.8301       2350.8999
       2350.8999       2345.1699       2345.1699       2344.5601       2344.5601       2347.3201
       2347.3201       2364.1699       2364.1699       2379.5701
**    Bottom corners for row J=10
       2408.3899       2395.3201       2395.3201       2382.3601       2382.3601       2369.5701
       2369.5701       2356.6201       2356.6201       2348.2200       2348.2200       2343.9900
       2343.9900       2347.3101       2347.3101       2351.1001       2351.1001       2364.5701
       2364.5701       2377.6499       2412.6899       2393.6799       2393.6799       2381.0701
       2381.0701       2367.7200       2367.7200       2355.3601       2355.3601       2346.9199
       2346.9199       2345.1299       2345.1299       2350.8501       2350.8501       2355.7500
       2355.7500       2366.0000       2366.0000       2377.8501
**    Bottom corners for row J=11
       2423.1101       2394.2900       2394.2900       2380.0901       2380.0901       2366.4399
       2366.4399       2354.7200       2354.7200       2348.1799       2348.1799       2349.0701
       2349.0701       2354.8501       2354.8501       2359.8899       2359.8899       2369.9600
       2369.9600       2383.1899       2430.9099       2393.7300       2393.7300       2379.8301
       2379.8301       2366.1799       2366.1799       2355.2500       2355.2500       2352.0601
       2352.0601       2354.9900       2354.9900       2358.2800       2358.2800       2365.3601
       2365.3601       2375.9800       2375.9800       2387.1599
**    Bottom corners for row J=12
       2421.8301       2391.8101       2391.8101       2380.7500       2380.7500       2368.1399
       2368.1399       2358.8000       2358.8000       2358.6299       2358.6299       2361.2900
       2361.2900       2360.3101       2360.3101       2368.5901       2368.5901       2382.1299
       2382.1299       2391.9399       2405.4500       2391.9500       2391.9500       2382.2700
       2382.2700       2373.2600       2373.2600       2366.5701       2366.5701       2366.6799
       2366.6799       2366.6899       2366.6899       2361.8101       2361.8101       2369.5400
       2369.5400       2387.4399       2387.4399       2397.2200
**    Bottom corners for row J=13
       2401.9399       2392.6699       2392.6699       2384.6299       2384.6299       2379.1001
       2379.1001       2375.8000       2375.8000       2374.2400       2374.2400       2372.7000
       2372.7000       2367.0801       2367.0801       2375.9399       2375.9399       2420.4500
       2420.4500       2478.2200       2403.9099       2394.7800       2394.7800       2388.0500
       2388.0500       2384.5200       2384.5200       2383.3101       2383.3101       2382.5500
       2382.5500       2382.6101       2382.6101       2382.2500       2382.2500       2391.1499
       2391.1499       2452.2900       2452.2900       2557.7100
**    Bottom corners for row J=14
       2407.0801       2398.2100       2398.2100       2393.2100       2393.2100       2390.8601
       2390.8601       2390.3501       2390.3501       2392.5100       2392.5100       2397.1101
       2397.1101       2401.9600       2401.9600       2452.9500       2452.9500       2479.0400
       2479.0400       2530.9600       2411.3601       2403.0100       2403.0100       2399.6201
       2399.6201       2398.0200       2398.0200       2398.8999       2398.8999       2404.8401
       2404.8401       2413.4500       2413.4500       2435.5000       2435.5000       2505.0000
       2505.0000       2505.0000       2505.0000       2505.0000
** Corners for layer K=2
**    Top corners for row J=1
       2447.3301       2444.7500       2444.7500       2431.3301       2431.3301       2423.3401
       2423.3401       2417.6899       2417.6899       2411.8101       2411.8101       2406.3701
       2406.3701       2398.8201       2398.8201       2396.8201       2396.8201       2402.3799
       2402.3799       2411.1799       2450.1699       2441.8899       2441.8899       2428.3899
       2428.3899       2418.9800       2418.9800       2412.3301       2412.3301       2407.1499
       2407.1499       2403.1001       2403.1001       2396.7900       2396.7900       2393.1299
       2393.1299       2399.7400       2399.7400       2409.2300
**    Top corners for row J=2
       2453.8201       2438.9500       2438.9500       2425.3899       2425.3899       2415.1599
       2415.1599       2407.6001       2407.6001       2402.4800       2402.4800       2399.2700
       2399.2700       2394.4299       2394.4299       2389.7100       2389.7100       2396.4600
       2396.4600       2405.6101       2453.4399       2436.1699       2436.1699       2422.6599
       2422.6599       2411.7200       2411.7200       2403.9099       2403.9099       2397.8999
       2397.8999       2394.2000       2394.2000       2390.9299       2390.9299       2386.4199
       2386.4199       2393.0100       2393.0100       2401.4500
**    Top corners for row J=3
       2448.2700       2433.3999       2433.3999       2419.8701       2419.8701       2408.6399
       2408.6399       2400.8301       2400.8301       2393.9199       2393.9199       2388.9199
       2388.9199       2386.1399       2386.1399       2382.8101       2382.8101       2390.8501
       2390.8501       2401.4500       2443.8601       2430.5901       2430.5901       2416.8401
       2416.8401       2406.0100       2406.0100       2398.2200       2398.2200       2390.7400
       2390.7400       2384.4399       2384.4399       2381.3701       2381.3701       2379.1299
       2379.1299       2388.9600       2388.9600       2401.4099
**    Top corners for row J=4
       2440.8201       2427.7700       2427.7700       2414.3101       2414.3101       2404.0500
       2404.0500       2396.2200       2396.2200       2387.7100       2387.7100       2381.1499
       2381.1499       2377.3401       2377.3401       2375.8501       2375.8501       2386.3301
       2386.3301       2399.9199       2436.8000       2424.1699       2424.1699       2412.0801
       2412.0801       2402.2500       2402.2500       2393.6399       2393.6399       2384.7100
       2384.7100       2379.6599       2379.6599       2375.4099       2375.4099       2373.3899
       2373.3899       2383.1499       2383.1499       2397.7800
**    Top corners for row J=5
       2430.5500       2420.4199       2420.4199       2409.1101       2409.1101       2399.3601
       2399.3601       2389.7800       2389.7800       2381.7900       2381.7900       2378.8701
       2378.8701       2374.6399       2374.6399       2372.5601       2372.5601       2381.4099
       2381.4099       2395.3000       2427.1899       2416.6799       2416.6799       2405.6101
       2405.6101       2395.8201       2395.8201       2385.5901       2385.5901       2379.3301
       2379.3301       2377.2300       2377.2300       2372.4099       2372.4099       2370.2800
       2370.2800       2380.2200       2380.2200       2394.1399
**    Top corners for row J=6
       2425.3201       2413.8899       2413.8899       2402.8000       2402.8000       2392.4399
       2392.4399       2381.8000       2381.8000       2376.8999       2376.8999       2374.5000
       2374.5000       2368.7800       2368.7800       2367.6799       2367.6799       2379.3000
       2379.3000       2392.9099       2423.2400       2412.6101       2412.6101       2401.0601
       2401.0601       2389.4099       2389.4099       2378.5200       2378.5200       2373.7100
       2373.7100       2370.9299       2370.9299       2365.0100       2365.0100       2367.2100
       2367.2100       2380.2500       2380.2500       2392.1899
**    Top corners for row J=7
       2423.5601       2411.6299       2411.6299       2399.5701       2399.5701       2386.3701
       2386.3701       2375.4700       2375.4700       2370.2200       2370.2200       2366.7600
       2366.7600       2361.1299       2361.1299       2362.7200       2362.7200       2375.9099
       2375.9099       2387.5200       2423.3501       2410.0701       2410.0701       2397.4399
       2397.4399       2383.1001       2383.1001       2372.5300       2372.5300       2366.2700
       2366.2700       2361.9399       2361.9399       2356.6699       2356.6699       2360.0100
       2360.0100       2372.1499       2372.1499       2384.2800
**    Top corners for row J=8
       2421.5200       2406.9700       2406.9700       2394.2000       2394.2000       2379.8301
       2379.8301       2369.1001       2369.1001       2362.0300       2362.0300       2357.1399
       2357.1399       2352.0701       2352.0701       2355.9199       2355.9199       2369.8501
       2369.8501       2383.0100       2418.1599       2402.9099       2402.9099       2389.5400
       2389.5400       2376.7000       2376.7000       2365.3899       2365.3899       2358.0200
       2358.0200       2352.3000       2352.3000       2347.9199       2347.9199       2350.9500
       2350.9500       2367.8401       2367.8401       2381.3701
**    Top corners for row J=9
       2413.7200       2399.0500       2399.0500       2385.0500       2385.0500       2374.1101
       2374.1101       2361.8799       2361.8799       2354.2800       2354.2800       2347.9099
       2347.9099       2344.9399       2344.9399       2346.9500       2346.9500       2364.8799
       2364.8799       2379.0801       2410.2500       2396.8000       2396.8000       2383.2100
       2383.2100       2371.8101       2371.8101       2358.8301       2358.8301       2350.8999
       2350.8999       2345.1699       2345.1699       2344.5601       2344.5601       2347.3201
       2347.3201       2364.1699       2364.1699       2379.5701
**    Top corners for row J=10
       2408.3899       2395.3201       2395.3201       2382.3601       2382.3601       2369.5701
       2369.5701       2356.6201       2356.6201       2348.2200       2348.2200       2343.9900
       2343.9900       2347.3101       2347.3101       2351.1001       2351.1001       2364.5701
       2364.5701       2377.6499       2412.6899       2393.6799       2393.6799       2381.0701
       2381.0701       2367.7200       2367.7200       2355.3601       2355.3601       2346.9199
       2346.9199       2345.1299       2345.1299       2350.8501       2350.8501       2355.7500
       2355.7500       2366.0000       2366.0000       2377.8501
**    Top corners for row J=11
       2423.1101       2394.2900       2394.2900       2380.0901       2380.0901       2366.4399
       2366.4399       2354.7200       2354.7200       2348.1799       2348.1799       2349.0701
       2349.0701       2354.8501       2354.8501       2359.8899       2359.8899       2369.9600
       2369.9600       2383.1899       2430.9099       2393.7300       2393.7300       2379.8301
       2379.8301       2366.1799       2366.1799       2355.2500       2355.2500       2352.0601
       2352.0601       2354.9900       2354.9900       2358.2800       2358.2800       2365.3601
       2365.3601       2375.9800       2375.9800       2387.1599
**    Top corners for row J=12
       2421.8301       2391.8101       2391.8101       2380.7500       2380.7500       2368.1399
       2368.1399       2358.8000       2358.8000       2358.6299       2358.6299       2361.2900
       2361.2900       2360.3101       2360.3101       2368.5901       2368.5901       2382.1299
       2382.1299       2391.9399       2405.4500       2391.9500       2391.9500       2382.2700
       2382.2700       2373.2600       2373.2600       2366.5701       2366.5701       2366.6799
       2366.6799       2366.6899       2366.6899       2361.8101       2361.8101       2369.5400
       2369.5400       2387.4399       2387.4399       2397.2200
**    Top corners for row J=13
       2401.9399       2392.6699       2392.6699       2384.6299       2384.6299       2379.1001
       2379.1001       2375.8000       2375.8000       2374.2400       2374.2400       2372.7000
       2372.7000       2367.0801       2367.0801       2375.9399       2375.9399       2420.4500
       2420.4500       2478.2200       2403.9099       2394.7800       2394.7800       2388.0500
       2388.0500       2384.5200       2384.5200       2383.3101       2383.3101       2382.5500
       2382.5500       2382.6101       2382.6101       2382.2500       2382.2500       2391.1499
       2391.1499       2452.2900       2452.2900       2557.7100
**    Top corners for row J=14
       2407.0801       2398.2100       2398.2100       2393.2100       2393.2100       2390.8601
       2390.8601       2390.3501       2390.3501       2392.5100       2392.5100       2397.1101
       2397.1101       2401.9600       2401.9600       2452.9500       2452.9500       2479.0400
       2479.0400       2530.9600       2411.3601       2403.0100       2403.0100       2399.6201
       2399.6201       2398.0200       2398.0200       2398.8999       2398.8999       2404.8401
       2404.8401       2413.4500       2413.4500       2435.5000       2435.5000       2505.0000
       2505.0000       2505.0000       2505.0000       2505.0000
**    Bottom corners for row J=1
       2452.0601       2449.6599       2449.6599       2436.4099       2436.4099       2428.5701
       2428.5701       2423.0500       2423.0500       2417.2500       2417.2500       2411.8501